Title: ***** 2nd order rc circuit frequency response *****
Date: Sun Jul 23 22:33:05  2023
Plotname: AC Analysis
Flags: complex
No. Variables: 2
No. Points: 91
Variables:
	0	frequency	frequency grid=3
	1	cutoff	notype dims=1
Values:
 0	1.000000000000000e+00,0.000000000000000e+00
	1.323402000000000e+02,0.0

 1	1.258925411794167e+00,0.000000000000000e+00
	0.000000000000000e+00,0.000000000000000e+00

 2	1.584893192461114e+00,0.000000000000000e+00
	0.000000000000000e+00,0.000000000000000e+00

 3	1.995262314968880e+00,0.000000000000000e+00
	0.000000000000000e+00,0.000000000000000e+00

 4	2.511886431509581e+00,0.000000000000000e+00
	0.000000000000000e+00,0.000000000000000e+00

 5	3.162277660168380e+00,0.000000000000000e+00
	0.000000000000000e+00,0.000000000000000e+00

 6	3.981071705534974e+00,0.000000000000000e+00
	0.000000000000000e+00,0.000000000000000e+00

 7	5.011872336272725e+00,0.000000000000000e+00
	0.000000000000000e+00,0.000000000000000e+00

 8	6.309573444801935e+00,0.000000000000000e+00
	0.000000000000000e+00,0.000000000000000e+00

 9	7.943282347242818e+00,0.000000000000000e+00
	0.000000000000000e+00,0.000000000000000e+00

 10	1.000000000000001e+01,0.000000000000000e+00
	0.000000000000000e+00,0.000000000000000e+00

 11	1.258925411794168e+01,0.000000000000000e+00
	0.000000000000000e+00,0.000000000000000e+00

 12	1.584893192461115e+01,0.000000000000000e+00
	0.000000000000000e+00,0.000000000000000e+00

 13	1.995262314968881e+01,0.000000000000000e+00
	0.000000000000000e+00,0.000000000000000e+00

 14	2.511886431509582e+01,0.000000000000000e+00
	0.000000000000000e+00,0.000000000000000e+00

 15	3.162277660168382e+01,0.000000000000000e+00
	0.000000000000000e+00,0.000000000000000e+00

 16	3.981071705534977e+01,0.000000000000000e+00
	0.000000000000000e+00,0.000000000000000e+00

 17	5.011872336272729e+01,0.000000000000000e+00
	0.000000000000000e+00,0.000000000000000e+00

 18	6.309573444801940e+01,0.000000000000000e+00
	0.000000000000000e+00,0.000000000000000e+00

 19	7.943282347242825e+01,0.000000000000000e+00
	0.000000000000000e+00,0.000000000000000e+00

 20	1.000000000000001e+02,0.000000000000000e+00
	0.000000000000000e+00,0.000000000000000e+00

 21	1.258925411794169e+02,0.000000000000000e+00
	0.000000000000000e+00,0.000000000000000e+00

 22	1.584893192461116e+02,0.000000000000000e+00
	0.000000000000000e+00,0.000000000000000e+00

 23	1.995262314968883e+02,0.000000000000000e+00
	0.000000000000000e+00,0.000000000000000e+00

 24	2.511886431509584e+02,0.000000000000000e+00
	0.000000000000000e+00,0.000000000000000e+00

 25	3.162277660168385e+02,0.000000000000000e+00
	0.000000000000000e+00,0.000000000000000e+00

 26	3.981071705534980e+02,0.000000000000000e+00
	0.000000000000000e+00,0.000000000000000e+00

 27	5.011872336272732e+02,0.000000000000000e+00
	0.000000000000000e+00,0.000000000000000e+00

 28	6.309573444801945e+02,0.000000000000000e+00
	0.000000000000000e+00,0.000000000000000e+00

 29	7.943282347242831e+02,0.000000000000000e+00
	0.000000000000000e+00,0.000000000000000e+00

 30	1.000000000000002e+03,0.000000000000000e+00
	0.000000000000000e+00,0.000000000000000e+00

 31	1.258925411794170e+03,0.000000000000000e+00
	0.000000000000000e+00,0.000000000000000e+00

 32	1.584893192461117e+03,0.000000000000000e+00
	0.000000000000000e+00,0.000000000000000e+00

 33	1.995262314968884e+03,0.000000000000000e+00
	0.000000000000000e+00,0.000000000000000e+00

 34	2.511886431509586e+03,0.000000000000000e+00
	0.000000000000000e+00,0.000000000000000e+00

 35	3.162277660168386e+03,0.000000000000000e+00
	0.000000000000000e+00,0.000000000000000e+00

 36	3.981071705534981e+03,0.000000000000000e+00
	0.000000000000000e+00,0.000000000000000e+00

 37	5.011872336272734e+03,0.000000000000000e+00
	0.000000000000000e+00,0.000000000000000e+00

 38	6.309573444801948e+03,0.000000000000000e+00
	0.000000000000000e+00,0.000000000000000e+00

 39	7.943282347242834e+03,0.000000000000000e+00
	0.000000000000000e+00,0.000000000000000e+00

 40	1.000000000000003e+04,0.000000000000000e+00
	0.000000000000000e+00,0.000000000000000e+00

 41	1.258925411794171e+04,0.000000000000000e+00
	0.000000000000000e+00,0.000000000000000e+00

 42	1.584893192461118e+04,0.000000000000000e+00
	0.000000000000000e+00,0.000000000000000e+00

 43	1.995262314968885e+04,0.000000000000000e+00
	0.000000000000000e+00,0.000000000000000e+00

 44	2.511886431509587e+04,0.000000000000000e+00
	0.000000000000000e+00,0.000000000000000e+00

 45	3.162277660168388e+04,0.000000000000000e+00
	0.000000000000000e+00,0.000000000000000e+00

 46	3.981071705534984e+04,0.000000000000000e+00
	0.000000000000000e+00,0.000000000000000e+00

 47	5.011872336272738e+04,0.000000000000000e+00
	0.000000000000000e+00,0.000000000000000e+00

 48	6.309573444801952e+04,0.000000000000000e+00
	0.000000000000000e+00,0.000000000000000e+00

 49	7.943282347242841e+04,0.000000000000000e+00
	0.000000000000000e+00,0.000000000000000e+00

 50	1.000000000000003e+05,0.000000000000000e+00
	0.000000000000000e+00,0.000000000000000e+00

 51	1.258925411794172e+05,0.000000000000000e+00
	0.000000000000000e+00,0.000000000000000e+00

 52	1.584893192461119e+05,0.000000000000000e+00
	0.000000000000000e+00,0.000000000000000e+00

 53	1.995262314968887e+05,0.000000000000000e+00
	0.000000000000000e+00,0.000000000000000e+00

 54	2.511886431509589e+05,0.000000000000000e+00
	0.000000000000000e+00,0.000000000000000e+00

 55	3.162277660168391e+05,0.000000000000000e+00
	0.000000000000000e+00,0.000000000000000e+00

 56	3.981071705534988e+05,0.000000000000000e+00
	0.000000000000000e+00,0.000000000000000e+00

 57	5.011872336272742e+05,0.000000000000000e+00
	0.000000000000000e+00,0.000000000000000e+00

 58	6.309573444801958e+05,0.000000000000000e+00
	0.000000000000000e+00,0.000000000000000e+00

 59	7.943282347242847e+05,0.000000000000000e+00
	0.000000000000000e+00,0.000000000000000e+00

 60	1.000000000000004e+06,0.000000000000000e+00
	0.000000000000000e+00,0.000000000000000e+00

 61	1.258925411794172e+06,0.000000000000000e+00
	0.000000000000000e+00,0.000000000000000e+00

 62	1.584893192461120e+06,0.000000000000000e+00
	0.000000000000000e+00,0.000000000000000e+00

 63	1.995262314968888e+06,0.000000000000000e+00
	0.000000000000000e+00,0.000000000000000e+00

 64	2.511886431509591e+06,0.000000000000000e+00
	0.000000000000000e+00,0.000000000000000e+00

 65	3.162277660168393e+06,0.000000000000000e+00
	0.000000000000000e+00,0.000000000000000e+00

 66	3.981071705534990e+06,0.000000000000000e+00
	0.000000000000000e+00,0.000000000000000e+00

 67	5.011872336272745e+06,0.000000000000000e+00
	0.000000000000000e+00,0.000000000000000e+00

 68	6.309573444801961e+06,0.000000000000000e+00
	0.000000000000000e+00,0.000000000000000e+00

 69	7.943282347242852e+06,0.000000000000000e+00
	0.000000000000000e+00,0.000000000000000e+00

 70	1.000000000000005e+07,0.000000000000000e+00
	0.000000000000000e+00,0.000000000000000e+00

 71	1.258925411794173e+07,0.000000000000000e+00
	0.000000000000000e+00,0.000000000000000e+00

 72	1.584893192461121e+07,0.000000000000000e+00
	0.000000000000000e+00,0.000000000000000e+00

 73	1.995262314968889e+07,0.000000000000000e+00
	0.000000000000000e+00,0.000000000000000e+00

 74	2.511886431509592e+07,0.000000000000000e+00
	0.000000000000000e+00,0.000000000000000e+00

 75	3.162277660168395e+07,0.000000000000000e+00
	0.000000000000000e+00,0.000000000000000e+00

 76	3.981071705534992e+07,0.000000000000000e+00
	0.000000000000000e+00,0.000000000000000e+00

 77	5.011872336272748e+07,0.000000000000000e+00
	0.000000000000000e+00,0.000000000000000e+00

 78	6.309573444801965e+07,0.000000000000000e+00
	0.000000000000000e+00,0.000000000000000e+00

 79	7.943282347242856e+07,0.000000000000000e+00
	0.000000000000000e+00,0.000000000000000e+00

 80	1.000000000000005e+08,0.000000000000000e+00
	0.000000000000000e+00,0.000000000000000e+00

 81	1.258925411794174e+08,0.000000000000000e+00
	0.000000000000000e+00,0.000000000000000e+00

 82	1.584893192461122e+08,0.000000000000000e+00
	0.000000000000000e+00,0.000000000000000e+00

 83	1.995262314968891e+08,0.000000000000000e+00
	0.000000000000000e+00,0.000000000000000e+00

 84	2.511886431509594e+08,0.000000000000000e+00
	0.000000000000000e+00,0.000000000000000e+00

 85	3.162277660168397e+08,0.000000000000000e+00
	0.000000000000000e+00,0.000000000000000e+00

 86	3.981071705534995e+08,0.000000000000000e+00
	0.000000000000000e+00,0.000000000000000e+00

 87	5.011872336272751e+08,0.000000000000000e+00
	0.000000000000000e+00,0.000000000000000e+00

 88	6.309573444801968e+08,0.000000000000000e+00
	0.000000000000000e+00,0.000000000000000e+00

 89	7.943282347242861e+08,0.000000000000000e+00
	0.000000000000000e+00,0.000000000000000e+00

 90	1.000000000000006e+09,0.000000000000000e+00
	0.000000000000000e+00,0.000000000000000e+00

