Title: ********digital inverter**********
Date: Tue Jul 25 04:47:10  2023
Plotname: DC transfer characteristic
Flags: real
No. Variables: 6
No. Points: 331
Variables:
	0	v(v-sweep)	voltage
	1	v(out)	voltage
	2	i(@mn[id])	current
	3	switch_point	notype dims=1
	4	i_max	notype dims=1
	5	i_max_at	notype dims=1
Values:
 0	0.000000000000000e+00
	3.299999990769493e+00
	1.093278318902574e-13
	1.749796000000000e+00
	1.065308000000000e-04
	1.670000000000000e+00

 1	1.000000000000000e-02
	3.299999990674112e+00
	1.424994075604761e-13
	0.000000000000000e+00
	0.000000000000000e+00
	0.000000000000000e+00

 2	2.000000000000000e-02
	3.299999990527172e+00
	1.857333840968991e-13
	0.000000000000000e+00
	0.000000000000000e+00
	0.000000000000000e+00

 3	3.000000000000000e-02
	3.299999990354721e+00
	2.420810024945825e-13
	0.000000000000000e+00
	0.000000000000000e+00
	0.000000000000000e+00

 4	4.000000000000000e-02
	3.299999990134462e+00
	3.155181869954387e-13
	0.000000000000000e+00
	0.000000000000000e+00
	0.000000000000000e+00

 5	5.000000000000000e-02
	3.299999989852515e+00
	4.112255035067117e-13
	0.000000000000000e+00
	0.000000000000000e+00
	0.000000000000000e+00

 6	6.000000000000000e-02
	3.299999989487385e+00
	5.359527479495411e-13
	0.000000000000000e+00
	0.000000000000000e+00
	0.000000000000000e+00

 7	7.000000000000001e-02
	3.299999989014951e+00
	6.984936841147777e-13
	0.000000000000000e+00
	0.000000000000000e+00
	0.000000000000000e+00

 8	8.000000000000000e-02
	3.299999988405060e+00
	9.103041149093071e-13
	0.000000000000000e+00
	0.000000000000000e+00
	0.000000000000000e+00

 9	9.000000000000000e-02
	3.299999987612336e+00
	1.186306421990963e-12
	0.000000000000000e+00
	0.000000000000000e+00
	0.000000000000000e+00

 10	9.999999999999999e-02
	3.299999986582717e+00
	1.545936621739966e-12
	0.000000000000000e+00
	0.000000000000000e+00
	0.000000000000000e+00

 11	1.100000000000000e-01
	3.299999985244985e+00
	2.014506730983292e-12
	0.000000000000000e+00
	0.000000000000000e+00
	0.000000000000000e+00

 12	1.200000000000000e-01
	3.299999983503541e+00
	2.624976935410055e-12
	0.000000000000000e+00
	0.000000000000000e+00
	0.000000000000000e+00

 13	1.300000000000000e-01
	3.299999981234139e+00
	3.420260149005132e-12
	0.000000000000000e+00
	0.000000000000000e+00
	0.000000000000000e+00

 14	1.400000000000000e-01
	3.299999978278755e+00
	4.456217894209681e-12
	0.000000000000000e+00
	0.000000000000000e+00
	0.000000000000000e+00

 15	1.500000000000000e-01
	3.299999974425851e+00
	5.805553388009610e-12
	0.000000000000000e+00
	0.000000000000000e+00
	0.000000000000000e+00

 16	1.600000000000000e-01
	3.299999969403794e+00
	7.562868312270506e-12
	0.000000000000000e+00
	0.000000000000000e+00
	0.000000000000000e+00

 17	1.700000000000000e-01
	3.299999962856475e+00
	9.851227824745311e-12
	0.000000000000000e+00
	0.000000000000000e+00
	0.000000000000000e+00

 18	1.800000000000000e-01
	3.299999954320811e+00
	1.283067880918155e-11
	0.000000000000000e+00
	0.000000000000000e+00
	0.000000000000000e+00

 19	1.900000000000000e-01
	3.299999943192054e+00
	1.670929532847779e-11
	0.000000000000000e+00
	0.000000000000000e+00
	0.000000000000000e+00

 20	2.000000000000000e-01
	3.299999928683910e+00
	2.175749047325404e-11
	0.000000000000000e+00
	0.000000000000000e+00
	0.000000000000000e+00

 21	2.100000000000000e-01
	3.299999909772346e+00
	2.832654495562930e-11
	0.000000000000000e+00
	0.000000000000000e+00
	0.000000000000000e+00

 22	2.200000000000001e-01
	3.299999885124470e+00
	3.687257187612260e-11
	0.000000000000000e+00
	0.000000000000000e+00
	0.000000000000000e+00

 23	2.300000000000001e-01
	3.299999853007898e+00
	4.798747884414995e-11
	0.000000000000000e+00
	0.000000000000000e+00
	0.000000000000000e+00

 24	2.400000000000001e-01
	3.299999811170790e+00
	6.243892103711663e-11
	0.000000000000000e+00
	0.000000000000000e+00
	0.000000000000000e+00

 25	2.500000000000001e-01
	3.299999756686610e+00
	8.122178348614124e-11
	0.000000000000000e+00
	0.000000000000000e+00
	0.000000000000000e+00

 26	2.600000000000001e-01
	3.299999685759835e+00
	1.056244135700952e-10
	0.000000000000000e+00
	0.000000000000000e+00
	0.000000000000000e+00

 27	2.700000000000001e-01
	3.299999593465667e+00
	1.373136753328130e-10
	0.000000000000000e+00
	0.000000000000000e+00
	0.000000000000000e+00

 28	2.800000000000001e-01
	3.299999473428117e+00
	1.784439499336606e-10
	0.000000000000000e+00
	0.000000000000000e+00
	0.000000000000000e+00

 29	2.900000000000001e-01
	3.299999317396684e+00
	2.317964990257881e-10
	0.000000000000000e+00
	0.000000000000000e+00
	0.000000000000000e+00

 30	3.000000000000001e-01
	3.299999114704163e+00
	3.009571801640621e-10
	0.000000000000000e+00
	0.000000000000000e+00
	0.000000000000000e+00

 31	3.100000000000001e-01
	3.299998851592570e+00
	3.905423954765179e-10
	0.000000000000000e+00
	0.000000000000000e+00
	0.000000000000000e+00

 32	3.200000000000001e-01
	3.299998510333741e+00
	5.064854030152589e-10
	0.000000000000000e+00
	0.000000000000000e+00
	0.000000000000000e+00

 33	3.300000000000001e-01
	3.299998068130658e+00
	6.563977514109948e-10
	0.000000000000000e+00
	0.000000000000000e+00
	0.000000000000000e+00

 34	3.400000000000001e-01
	3.299997495729378e+00
	8.500236228652085e-10
	0.000000000000000e+00
	0.000000000000000e+00
	0.000000000000000e+00

 35	3.500000000000001e-01
	3.299996755673217e+00
	1.099808270935784e-09
	0.000000000000000e+00
	0.000000000000000e+00
	0.000000000000000e+00

 36	3.600000000000002e-01
	3.299995800126748e+00
	1.421605464183105e-09
	0.000000000000000e+00
	0.000000000000000e+00
	0.000000000000000e+00

 37	3.700000000000002e-01
	3.299994568172751e+00
	1.835552791400825e-09
	0.000000000000000e+00
	0.000000000000000e+00
	0.000000000000000e+00

 38	3.800000000000002e-01
	3.299992982478993e+00
	2.367147686606712e-09
	0.000000000000000e+00
	0.000000000000000e+00
	0.000000000000000e+00

 39	3.900000000000002e-01
	3.299990945217418e+00
	3.048560866786558e-09
	0.000000000000000e+00
	0.000000000000000e+00
	0.000000000000000e+00

 40	4.000000000000002e-01
	3.299988333092428e+00
	3.920227261020715e-09
	0.000000000000000e+00
	0.000000000000000e+00
	0.000000000000000e+00

 41	4.100000000000002e-01
	3.299984991351878e+00
	5.032757133102156e-09
	0.000000000000000e+00
	0.000000000000000e+00
	0.000000000000000e+00

 42	4.200000000000002e-01
	3.299980726628728e+00
	6.449211664730729e-09
	0.000000000000000e+00
	0.000000000000000e+00
	0.000000000000000e+00

 43	4.300000000000002e-01
	3.299975298444130e+00
	8.247787567046857e-09
	0.000000000000000e+00
	0.000000000000000e+00
	0.000000000000000e+00

 44	4.400000000000002e-01
	3.299968409239720e+00
	1.052495430219372e-08
	0.000000000000000e+00
	0.000000000000000e+00
	0.000000000000000e+00

 45	4.500000000000002e-01
	3.299959692781863e+00
	1.339908547380868e-08
	0.000000000000000e+00
	0.000000000000000e+00
	0.000000000000000e+00

 46	4.600000000000002e-01
	3.299948700774001e+00
	1.701462345020057e-08
	0.000000000000000e+00
	0.000000000000000e+00
	0.000000000000000e+00

 47	4.700000000000003e-01
	3.299934887569724e+00
	2.154681412126993e-08
	0.000000000000000e+00
	0.000000000000000e+00
	0.000000000000000e+00

 48	4.800000000000003e-01
	3.299917592807007e+00
	2.720704763426282e-08
	0.000000000000000e+00
	0.000000000000000e+00
	0.000000000000000e+00

 49	4.900000000000003e-01
	3.299896021845299e+00
	3.424884121601183e-08
	0.000000000000000e+00
	0.000000000000000e+00
	0.000000000000000e+00

 50	5.000000000000002e-01
	3.299869223835465e+00
	4.297450062413480e-08
	0.000000000000000e+00
	0.000000000000000e+00
	0.000000000000000e+00

 51	5.100000000000002e-01
	3.299836067278541e+00
	5.374249395305580e-08
	0.000000000000000e+00
	0.000000000000000e+00
	0.000000000000000e+00

 52	5.200000000000002e-01
	3.299795212977260e+00
	6.697555902429958e-08
	0.000000000000000e+00
	0.000000000000000e+00
	0.000000000000000e+00

 53	5.300000000000002e-01
	3.299745084346723e+00
	8.316953395065475e-08
	0.000000000000000e+00
	0.000000000000000e+00
	0.000000000000000e+00

 54	5.400000000000003e-01
	3.299683835235320e+00
	1.029028384039452e-07
	0.000000000000000e+00
	0.000000000000000e+00
	0.000000000000000e+00

 55	5.500000000000003e-01
	3.299609315795578e+00
	1.268464303776863e-07
	0.000000000000000e+00
	0.000000000000000e+00
	0.000000000000000e+00

 56	5.600000000000003e-01
	3.299519037297859e+00
	1.557739148245936e-07
	0.000000000000000e+00
	0.000000000000000e+00
	0.000000000000000e+00

 57	5.700000000000003e-01
	3.299410137474313e+00
	1.905712914471345e-07
	0.000000000000000e+00
	0.000000000000000e+00
	0.000000000000000e+00

 58	5.800000000000003e-01
	3.299279348610609e+00
	2.322456175158565e-07
	0.000000000000000e+00
	0.000000000000000e+00
	0.000000000000000e+00

 59	5.900000000000003e-01
	3.299122971288683e+00
	2.819316599887678e-07
	0.000000000000000e+00
	0.000000000000000e+00
	0.000000000000000e+00

 60	6.000000000000003e-01
	3.298936857200511e+00
	3.408954611510674e-07
	0.000000000000000e+00
	0.000000000000000e+00
	0.000000000000000e+00

 61	6.100000000000003e-01
	3.298716404689671e+00
	4.105336868030412e-07
	0.000000000000000e+00
	0.000000000000000e+00
	0.000000000000000e+00

 62	6.200000000000003e-01
	3.298456570515859e+00
	4.923677005742664e-07
	0.000000000000000e+00
	0.000000000000000e+00
	0.000000000000000e+00

 63	6.300000000000003e-01
	3.298151900720696e+00
	5.880315298494010e-07
	0.000000000000000e+00
	0.000000000000000e+00
	0.000000000000000e+00

 64	6.400000000000003e-01
	3.297796582368701e+00
	6.992532534330723e-07
	0.000000000000000e+00
	0.000000000000000e+00
	0.000000000000000e+00

 65	6.500000000000004e-01
	3.297384516513433e+00
	8.278298214963919e-07
	0.000000000000000e+00
	0.000000000000000e+00
	0.000000000000000e+00

 66	6.600000000000004e-01
	3.296909410957452e+00
	9.755958690150337e-07
	0.000000000000000e+00
	0.000000000000000e+00
	0.000000000000000e+00

 67	6.700000000000004e-01
	3.296364889647807e+00
	1.144387646635807e-06
	0.000000000000000e+00
	0.000000000000000e+00
	0.000000000000000e+00

 68	6.800000000000004e-01
	3.295744613849564e+00
	1.336003703226308e-06
	0.000000000000000e+00
	0.000000000000000e+00
	0.000000000000000e+00

 69	6.900000000000004e-01
	3.295042408924104e+00
	1.552164348466896e-06
	0.000000000000000e+00
	0.000000000000000e+00
	0.000000000000000e+00

 70	7.000000000000004e-01
	3.294252389735120e+00
	1.794472146465865e-06
	0.000000000000000e+00
	0.000000000000000e+00
	0.000000000000000e+00

 71	7.100000000000004e-01
	3.293369077496128e+00
	2.064375704698561e-06
	0.000000000000000e+00
	0.000000000000000e+00
	0.000000000000000e+00

 72	7.200000000000004e-01
	3.292387501465942e+00
	2.363138814738549e-06
	0.000000000000000e+00
	0.000000000000000e+00
	0.000000000000000e+00

 73	7.300000000000004e-01
	3.291303279993129e+00
	2.691816591426098e-06
	0.000000000000000e+00
	0.000000000000000e+00
	0.000000000000000e+00

 74	7.400000000000004e-01
	3.290112677157186e+00
	3.051239694836960e-06
	0.000000000000000e+00
	0.000000000000000e+00
	0.000000000000000e+00

 75	7.500000000000004e-01
	3.288812633189882e+00
	3.442007076591070e-06
	0.000000000000000e+00
	0.000000000000000e+00
	0.000000000000000e+00

 76	7.600000000000005e-01
	3.287400768871252e+00
	3.864487049892121e-06
	0.000000000000000e+00
	0.000000000000000e+00
	0.000000000000000e+00

 77	7.700000000000005e-01
	3.285875365912335e+00
	4.318825916601786e-06
	0.000000000000000e+00
	0.000000000000000e+00
	0.000000000000000e+00

 78	7.800000000000005e-01
	3.284235326741317e+00
	4.804962951337182e-06
	0.000000000000000e+00
	0.000000000000000e+00
	0.000000000000000e+00

 79	7.900000000000005e-01
	3.282480118054690e+00
	5.322650272700939e-06
	0.000000000000000e+00
	0.000000000000000e+00
	0.000000000000000e+00

 80	8.000000000000005e-01
	3.280609702876145e+00
	5.871476028783928e-06
	0.000000000000000e+00
	0.000000000000000e+00
	0.000000000000000e+00

 81	8.100000000000005e-01
	3.278624465846754e+00
	6.450889368927152e-06
	0.000000000000000e+00
	0.000000000000000e+00
	0.000000000000000e+00

 82	8.200000000000005e-01
	3.276525136025263e+00
	7.060225832350168e-06
	0.000000000000000e+00
	0.000000000000000e+00
	0.000000000000000e+00

 83	8.300000000000005e-01
	3.274312710800242e+00
	7.698732016420513e-06
	0.000000000000000e+00
	0.000000000000000e+00
	0.000000000000000e+00

 84	8.400000000000005e-01
	3.271988383771689e+00
	8.365588654000926e-06
	0.000000000000000e+00
	0.000000000000000e+00
	0.000000000000000e+00

 85	8.500000000000005e-01
	3.269553478572714e+00
	9.059931497551134e-06
	0.000000000000000e+00
	0.000000000000000e+00
	0.000000000000000e+00

 86	8.600000000000005e-01
	3.267009389931459e+00
	9.780869653628297e-06
	0.000000000000000e+00
	0.000000000000000e+00
	0.000000000000000e+00

 87	8.700000000000006e-01
	3.264357532527208e+00
	1.052750122016939e-05
	0.000000000000000e+00
	0.000000000000000e+00
	0.000000000000000e+00

 88	8.800000000000006e-01
	3.261599297744781e+00
	1.129892624396574e-05
	0.000000000000000e+00
	0.000000000000000e+00
	0.000000000000000e+00

 89	8.900000000000006e-01
	3.258736017998254e+00
	1.209425713650881e-05
	0.000000000000000e+00
	0.000000000000000e+00
	0.000000000000000e+00

 90	9.000000000000006e-01
	3.255768938026713e+00
	1.291262676679411e-05
	0.000000000000000e+00
	0.000000000000000e+00
	0.000000000000000e+00

 91	9.100000000000006e-01
	3.252699192421342e+00
	1.375319449589037e-05
	0.000000000000000e+00
	0.000000000000000e+00
	0.000000000000000e+00

 92	9.200000000000006e-01
	3.249527788551663e+00
	1.461515043717849e-05
	0.000000000000000e+00
	0.000000000000000e+00
	0.000000000000000e+00

 93	9.300000000000006e-01
	3.246255594031323e+00
	1.549771822510964e-05
	0.000000000000000e+00
	0.000000000000000e+00
	0.000000000000000e+00

 94	9.400000000000006e-01
	3.242883327922477e+00
	1.640015656042391e-05
	0.000000000000000e+00
	0.000000000000000e+00
	0.000000000000000e+00

 95	9.500000000000006e-01
	3.239411554923806e+00
	1.732175977612186e-05
	0.000000000000000e+00
	0.000000000000000e+00
	0.000000000000000e+00

 96	9.600000000000006e-01
	3.235840681859912e+00
	1.826185764022077e-05
	0.000000000000000e+00
	0.000000000000000e+00
	0.000000000000000e+00

 97	9.700000000000006e-01
	3.232170955890041e+00
	1.921981458148624e-05
	0.000000000000000e+00
	0.000000000000000e+00
	0.000000000000000e+00

 98	9.800000000000006e-01
	3.228402463900991e+00
	2.019502849495208e-05
	0.000000000000000e+00
	0.000000000000000e+00
	0.000000000000000e+00

 99	9.900000000000007e-01
	3.224535132714348e+00
	2.118692925665655e-05
	0.000000000000000e+00
	0.000000000000000e+00
	0.000000000000000e+00

 100	1.000000000000001e+00
	3.220568729663891e+00
	2.219497705207920e-05
	0.000000000000000e+00
	0.000000000000000e+00
	0.000000000000000e+00

 101	1.010000000000001e+00
	3.216502863352994e+00
	2.321866060117748e-05
	0.000000000000000e+00
	0.000000000000000e+00
	0.000000000000000e+00

 102	1.020000000000001e+00
	3.212336984260820e+00
	2.425749534405822e-05
	0.000000000000000e+00
	0.000000000000000e+00
	0.000000000000000e+00

 103	1.030000000000001e+00
	3.208070385084485e+00
	2.531102163580655e-05
	0.000000000000000e+00
	0.000000000000000e+00
	0.000000000000000e+00

 104	1.040000000000001e+00
	3.203702200596480e+00
	2.637880298589311e-05
	0.000000000000000e+00
	0.000000000000000e+00
	0.000000000000000e+00

 105	1.050000000000001e+00
	3.199231406949775e+00
	2.746042436720394e-05
	0.000000000000000e+00
	0.000000000000000e+00
	0.000000000000000e+00

 106	1.060000000000001e+00
	3.194656820276029e+00
	2.855549061123847e-05
	0.000000000000000e+00
	0.000000000000000e+00
	0.000000000000000e+00

 107	1.070000000000001e+00
	3.189977094541704e+00
	2.966362489954837e-05
	0.000000000000000e+00
	0.000000000000000e+00
	0.000000000000000e+00

 108	1.080000000000001e+00
	3.185190718534357e+00
	3.078446735630917e-05
	0.000000000000000e+00
	0.000000000000000e+00
	0.000000000000000e+00

 109	1.090000000000001e+00
	3.180296011958955e+00
	3.191767374320675e-05
	0.000000000000000e+00
	0.000000000000000e+00
	0.000000000000000e+00

 110	1.100000000000001e+00
	3.175291120539416e+00
	3.306291425489803e-05
	0.000000000000000e+00
	0.000000000000000e+00
	0.000000000000000e+00

 111	1.110000000000001e+00
	3.170174010071594e+00
	3.421987241135870e-05
	0.000000000000000e+00
	0.000000000000000e+00
	0.000000000000000e+00

 112	1.120000000000001e+00
	3.164942459372765e+00
	3.538824404206175e-05
	0.000000000000000e+00
	0.000000000000000e+00
	0.000000000000000e+00

 113	1.130000000000001e+00
	3.159594051988445e+00
	3.656773635594854e-05
	0.000000000000000e+00
	0.000000000000000e+00
	0.000000000000000e+00

 114	1.140000000000001e+00
	3.154126166644714e+00
	3.775806709082486e-05
	0.000000000000000e+00
	0.000000000000000e+00
	0.000000000000000e+00

 115	1.150000000000001e+00
	3.148535966264900e+00
	3.895896373539093e-05
	0.000000000000000e+00
	0.000000000000000e+00
	0.000000000000000e+00

 116	1.160000000000001e+00
	3.142820385470478e+00
	4.017016281724275e-05
	0.000000000000000e+00
	0.000000000000000e+00
	0.000000000000000e+00

 117	1.170000000000001e+00
	3.136976116400756e+00
	4.139140925022105e-05
	0.000000000000000e+00
	0.000000000000000e+00
	0.000000000000000e+00

 118	1.180000000000001e+00
	3.130999592696635e+00
	4.262245573474620e-05
	0.000000000000000e+00
	0.000000000000000e+00
	0.000000000000000e+00

 119	1.190000000000001e+00
	3.124886971430753e+00
	4.386306220500138e-05
	0.000000000000000e+00
	0.000000000000000e+00
	0.000000000000000e+00

 120	1.200000000000001e+00
	3.118634112762687e+00
	4.511299531716769e-05
	0.000000000000000e+00
	0.000000000000000e+00
	0.000000000000000e+00

 121	1.210000000000001e+00
	3.112236557031629e+00
	4.637202797317847e-05
	0.000000000000000e+00
	0.000000000000000e+00
	0.000000000000000e+00

 122	1.220000000000001e+00
	3.105689498985389e+00
	4.763993887479441e-05
	0.000000000000000e+00
	0.000000000000000e+00
	0.000000000000000e+00

 123	1.230000000000001e+00
	3.098987758733809e+00
	4.891651210297366e-05
	0.000000000000000e+00
	0.000000000000000e+00
	0.000000000000000e+00

 124	1.240000000000001e+00
	3.092125748993658e+00
	5.020153671779249e-05
	0.000000000000000e+00
	0.000000000000000e+00
	0.000000000000000e+00

 125	1.250000000000001e+00
	3.085097438087721e+00
	5.149480637429045e-05
	0.000000000000000e+00
	0.000000000000000e+00
	0.000000000000000e+00

 126	1.260000000000001e+00
	3.077896308065339e+00
	5.279611894970560e-05
	0.000000000000000e+00
	0.000000000000000e+00
	0.000000000000000e+00

 127	1.270000000000001e+00
	3.070515307178673e+00
	5.410527617755187e-05
	0.000000000000000e+00
	0.000000000000000e+00
	0.000000000000000e+00

 128	1.280000000000001e+00
	3.062946795823978e+00
	5.542208328394055e-05
	0.000000000000000e+00
	0.000000000000000e+00
	0.000000000000000e+00

 129	1.290000000000001e+00
	3.055182484839862e+00
	5.674634862129228e-05
	0.000000000000000e+00
	0.000000000000000e+00
	0.000000000000000e+00

 130	1.300000000000001e+00
	3.047213364888742e+00
	5.807788329434745e-05
	0.000000000000000e+00
	0.000000000000000e+00
	0.000000000000000e+00

 131	1.310000000000001e+00
	3.039029625283562e+00
	5.941650077275780e-05
	0.000000000000000e+00
	0.000000000000000e+00
	0.000000000000000e+00

 132	1.320000000000001e+00
	3.030620560353178e+00
	6.076201648397924e-05
	0.000000000000000e+00
	0.000000000000000e+00
	0.000000000000000e+00

 133	1.330000000000001e+00
	3.021974460940364e+00
	6.211424737915390e-05
	0.000000000000000e+00
	0.000000000000000e+00
	0.000000000000000e+00

 134	1.340000000000001e+00
	3.013078488130788e+00
	6.347301146351780e-05
	0.000000000000000e+00
	0.000000000000000e+00
	0.000000000000000e+00

 135	1.350000000000001e+00
	3.003918525491640e+00
	6.483812728103447e-05
	0.000000000000000e+00
	0.000000000000000e+00
	0.000000000000000e+00

 136	1.360000000000001e+00
	2.994479005299132e+00
	6.620941334095951e-05
	0.000000000000000e+00
	0.000000000000000e+00
	0.000000000000000e+00

 137	1.370000000000001e+00
	2.984742702945350e+00
	6.758668747099132e-05
	0.000000000000000e+00
	0.000000000000000e+00
	0.000000000000000e+00

 138	1.380000000000001e+00
	2.974690492148322e+00
	6.896976607780690e-05
	0.000000000000000e+00
	0.000000000000000e+00
	0.000000000000000e+00

 139	1.390000000000001e+00
	2.964301051524580e+00
	7.035846329067371e-05
	0.000000000000000e+00
	0.000000000000000e+00
	0.000000000000000e+00

 140	1.400000000000001e+00
	2.953550510226034e+00
	7.175258995677355e-05
	0.000000000000000e+00
	0.000000000000000e+00
	0.000000000000000e+00

 141	1.410000000000001e+00
	2.942412016510988e+00
	7.315195244734717e-05
	0.000000000000000e+00
	0.000000000000000e+00
	0.000000000000000e+00

 142	1.420000000000001e+00
	2.930855207903877e+00
	7.455635122076110e-05
	0.000000000000000e+00
	0.000000000000000e+00
	0.000000000000000e+00

 143	1.430000000000001e+00
	2.918845554140969e+00
	7.596557907006671e-05
	0.000000000000000e+00
	0.000000000000000e+00
	0.000000000000000e+00

 144	1.440000000000001e+00
	2.906343533716496e+00
	7.737941895671462e-05
	0.000000000000000e+00
	0.000000000000000e+00
	0.000000000000000e+00

 145	1.450000000000001e+00
	2.893303589814034e+00
	7.879764129461207e-05
	0.000000000000000e+00
	0.000000000000000e+00
	0.000000000000000e+00

 146	1.460000000000001e+00
	2.879672789212166e+00
	8.022000049344167e-05
	0.000000000000000e+00
	0.000000000000000e+00
	0.000000000000000e+00

 147	1.470000000000001e+00
	2.865389074744961e+00
	8.164623048783925e-05
	0.000000000000000e+00
	0.000000000000000e+00
	0.000000000000000e+00

 148	1.480000000000001e+00
	2.850378950921085e+00
	8.307603885211790e-05
	0.000000000000000e+00
	0.000000000000000e+00
	0.000000000000000e+00

 149	1.490000000000001e+00
	2.834554362669353e+00
	8.450909890173167e-05
	0.000000000000000e+00
	0.000000000000000e+00
	0.000000000000000e+00

 150	1.500000000000001e+00
	2.817808397662581e+00
	8.594503886021376e-05
	0.000000000000000e+00
	0.000000000000000e+00
	0.000000000000000e+00

 151	1.510000000000001e+00
	2.800009227073557e+00
	8.738342663315801e-05
	0.000000000000000e+00
	0.000000000000000e+00
	0.000000000000000e+00

 152	1.520000000000001e+00
	2.780991325664802e+00
	8.882374779908935e-05
	0.000000000000000e+00
	0.000000000000000e+00
	0.000000000000000e+00

 153	1.530000000000001e+00
	2.760542336982322e+00
	9.026537274393850e-05
	0.000000000000000e+00
	0.000000000000000e+00
	0.000000000000000e+00

 154	1.540000000000001e+00
	2.738382670430826e+00
	9.170750567419664e-05
	0.000000000000000e+00
	0.000000000000000e+00
	0.000000000000000e+00

 155	1.550000000000001e+00
	2.714132355054950e+00
	9.314910184110829e-05
	0.000000000000000e+00
	0.000000000000000e+00
	0.000000000000000e+00

 156	1.560000000000001e+00
	2.687254200983699e+00
	9.458872559567875e-05
	0.000000000000000e+00
	0.000000000000000e+00
	0.000000000000000e+00

 157	1.570000000000001e+00
	2.656949715811995e+00
	9.602429020220954e-05
	0.000000000000000e+00
	0.000000000000000e+00
	0.000000000000000e+00

 158	1.580000000000001e+00
	2.621952676882730e+00
	9.745254051688563e-05
	0.000000000000000e+00
	0.000000000000000e+00
	0.000000000000000e+00

 159	1.590000000000001e+00
	2.580079577852161e+00
	9.886792032923963e-05
	0.000000000000000e+00
	0.000000000000000e+00
	0.000000000000000e+00

 160	1.600000000000001e+00
	2.527157121345987e+00
	1.002598380951258e-04
	0.000000000000000e+00
	0.000000000000000e+00
	0.000000000000000e+00

 161	1.610000000000001e+00
	2.454487300024107e+00
	1.016059936016568e-04
	0.000000000000000e+00
	0.000000000000000e+00
	0.000000000000000e+00

 162	1.620000000000001e+00
	2.346067563948368e+00
	1.028634772716120e-04
	0.000000000000000e+00
	0.000000000000000e+00
	0.000000000000000e+00

 163	1.630000000000001e+00
	2.189826459248310e+00
	1.039912151216033e-04
	0.000000000000000e+00
	0.000000000000000e+00
	0.000000000000000e+00

 164	1.640000000000001e+00
	1.989749797523745e+00
	1.049762327464569e-04
	0.000000000000000e+00
	0.000000000000000e+00
	0.000000000000000e+00

 165	1.650000000000001e+00
	1.749795700169865e+00
	1.057849818561346e-04
	0.000000000000000e+00
	0.000000000000000e+00
	0.000000000000000e+00

 166	1.660000000000001e+00
	1.477277999927062e+00
	1.063437793893059e-04
	0.000000000000000e+00
	0.000000000000000e+00
	0.000000000000000e+00

 167	1.670000000000001e+00
	1.197585388185265e+00
	1.065307897843407e-04
	0.000000000000000e+00
	0.000000000000000e+00
	0.000000000000000e+00

 168	1.680000000000001e+00
	9.584714926791108e-01
	1.061954230962752e-04
	0.000000000000000e+00
	0.000000000000000e+00
	0.000000000000000e+00

 169	1.690000000000001e+00
	7.960734099928066e-01
	1.053058633698788e-04
	0.000000000000000e+00
	0.000000000000000e+00
	0.000000000000000e+00

 170	1.700000000000001e+00
	7.005062750512929e-01
	1.040419703350694e-04
	0.000000000000000e+00
	0.000000000000000e+00
	0.000000000000000e+00

 171	1.710000000000001e+00
	6.420747975594846e-01
	1.026082696383130e-04
	0.000000000000000e+00
	0.000000000000000e+00
	0.000000000000000e+00

 172	1.720000000000001e+00
	5.989579095669565e-01
	1.010578159447278e-04
	0.000000000000000e+00
	0.000000000000000e+00
	0.000000000000000e+00

 173	1.730000000000001e+00
	5.646963685089147e-01
	9.952601234823412e-05
	0.000000000000000e+00
	0.000000000000000e+00
	0.000000000000000e+00

 174	1.740000000000001e+00
	5.353041151207623e-01
	9.796268299841464e-05
	0.000000000000000e+00
	0.000000000000000e+00
	0.000000000000000e+00

 175	1.750000000000001e+00
	5.094333527436674e-01
	9.638326244476662e-05
	0.000000000000000e+00
	0.000000000000000e+00
	0.000000000000000e+00

 176	1.760000000000001e+00
	4.862660148119848e-01
	9.479773263527454e-05
	0.000000000000000e+00
	0.000000000000000e+00
	0.000000000000000e+00

 177	1.770000000000001e+00
	4.652327827336158e-01
	9.320981796521102e-05
	0.000000000000000e+00
	0.000000000000000e+00
	0.000000000000000e+00

 178	1.780000000000001e+00
	4.459360344878349e-01
	9.162193447778600e-05
	0.000000000000000e+00
	0.000000000000000e+00
	0.000000000000000e+00

 179	1.790000000000001e+00
	4.280863583589739e-01
	9.003585259073273e-05
	0.000000000000000e+00
	0.000000000000000e+00
	0.000000000000000e+00

 180	1.800000000000001e+00
	4.114654655479549e-01
	8.845291905692986e-05
	0.000000000000000e+00
	0.000000000000000e+00
	0.000000000000000e+00

 181	1.810000000000001e+00
	3.959040534720245e-01
	8.687419925850433e-05
	0.000000000000000e+00
	0.000000000000000e+00
	0.000000000000000e+00

 182	1.820000000000001e+00
	3.812677775005738e-01
	8.530056236549392e-05
	0.000000000000000e+00
	0.000000000000000e+00
	0.000000000000000e+00

 183	1.830000000000001e+00
	3.674479821450712e-01
	8.373273520211025e-05
	0.000000000000000e+00
	0.000000000000000e+00
	0.000000000000000e+00

 184	1.840000000000001e+00
	3.543553623118877e-01
	8.217133821062107e-05
	0.000000000000000e+00
	0.000000000000000e+00
	0.000000000000000e+00

 185	1.850000000000001e+00
	3.419154989674276e-01
	8.061691042609849e-05
	0.000000000000000e+00
	0.000000000000000e+00
	0.000000000000000e+00

 186	1.860000000000001e+00
	3.300656345372195e-01
	7.906992737137077e-05
	0.000000000000000e+00
	0.000000000000000e+00
	0.000000000000000e+00

 187	1.870000000000001e+00
	3.187522922420513e-01
	7.753081421195064e-05
	0.000000000000000e+00
	0.000000000000000e+00
	0.000000000000000e+00

 188	1.880000000000001e+00
	3.079294845702782e-01
	7.599995563973560e-05
	0.000000000000000e+00
	0.000000000000000e+00
	0.000000000000000e+00

 189	1.890000000000001e+00
	2.975573421759362e-01
	7.447770343713693e-05
	0.000000000000000e+00
	0.000000000000000e+00
	0.000000000000000e+00

 190	1.900000000000001e+00
	2.876010487314666e-01
	7.296438236166303e-05
	0.000000000000000e+00
	0.000000000000000e+00
	0.000000000000000e+00

 191	1.910000000000001e+00
	2.780300023263601e-01
	7.146029478913518e-05
	0.000000000000000e+00
	0.000000000000000e+00
	0.000000000000000e+00

 192	1.920000000000001e+00
	2.688171472544212e-01
	6.996572442538188e-05
	0.000000000000000e+00
	0.000000000000000e+00
	0.000000000000000e+00

 193	1.930000000000001e+00
	2.599384357552377e-01
	6.848093930666387e-05
	0.000000000000000e+00
	0.000000000000000e+00
	0.000000000000000e+00

 194	1.940000000000002e+00
	2.513723901467695e-01
	6.700619425133065e-05
	0.000000000000000e+00
	0.000000000000000e+00
	0.000000000000000e+00

 195	1.950000000000002e+00
	2.430997434089864e-01
	6.554173288212619e-05
	0.000000000000000e+00
	0.000000000000000e+00
	0.000000000000000e+00

 196	1.960000000000002e+00
	2.351031417240296e-01
	6.408778930872301e-05
	0.000000000000000e+00
	0.000000000000000e+00
	0.000000000000000e+00

 197	1.970000000000002e+00
	2.273668964261404e-01
	6.264458953937765e-05
	0.000000000000000e+00
	0.000000000000000e+00
	0.000000000000000e+00

 198	1.980000000000002e+00
	2.198767757073037e-01
	6.121235267440854e-05
	0.000000000000000e+00
	0.000000000000000e+00
	0.000000000000000e+00

 199	1.990000000000002e+00
	2.126198285748051e-01
	5.979129192229584e-05
	0.000000000000000e+00
	0.000000000000000e+00
	0.000000000000000e+00

 200	2.000000000000001e+00
	2.055842351743800e-01
	5.838161547058718e-05
	0.000000000000000e+00
	0.000000000000000e+00
	0.000000000000000e+00

 201	2.010000000000001e+00
	1.987591788220310e-01
	5.698352723751730e-05
	0.000000000000000e+00
	0.000000000000000e+00
	0.000000000000000e+00

 202	2.020000000000001e+00
	1.921347360263010e-01
	5.559722752442977e-05
	0.000000000000000e+00
	0.000000000000000e+00
	0.000000000000000e+00

 203	2.030000000000001e+00
	1.857017815142403e-01
	5.422291358577072e-05
	0.000000000000000e+00
	0.000000000000000e+00
	0.000000000000000e+00

 204	2.040000000000000e+00
	1.794519058420477e-01
	5.286078013008533e-05
	0.000000000000000e+00
	0.000000000000000e+00
	0.000000000000000e+00

 205	2.050000000000000e+00
	1.733773436176016e-01
	5.151101976267370e-05
	0.000000000000000e+00
	0.000000000000000e+00
	0.000000000000000e+00

 206	2.060000000000000e+00
	1.674709107207112e-01
	5.017382337964616e-05
	0.000000000000000e+00
	0.000000000000000e+00
	0.000000000000000e+00

 207	2.070000000000000e+00
	1.617259491852995e-01
	4.884938052036600e-05
	0.000000000000000e+00
	0.000000000000000e+00
	0.000000000000000e+00

 208	2.080000000000000e+00
	1.561362786386529e-01